ITEM: TIMESTEP
0
ITEM: NUMBER OF ATOMS
3680
ITEM: BOX BOUNDS pp pp pp
-52.2179947 51.2179947
-52.506279 50.506279
-5.0 5.0
ITEM: ATOMS x y z type id
-40.3727379 -36.9879762 0.0 2 1048
-39.8692094 -46.6320153 0.0 1 3564
-37.9002914 -36.4479943 0.0 2 3569
-48.6209069 -47.4325676 0.0 2 650
-43.7178498 -46.6168251 0.0 2 2408
-46.0137711 -40.2871208 0.0 2 796
-42.9753418 -50.9658052 0.0 2 1190
-39.8816682 -39.8987122 0.0 1 1203
-44.0942688 -51.8823166 0.0 1 1167
-37.9317666 -43.2606163 0.0 2 1421
-46.4177323 -45.6236191 0.0 1 1586
-41.5919152 -51.5121002 0.0 1 3438
-39.5071945 -34.5735779 0.0 2 2828
-40.7229233 -49.0504227 0.0 1 1338
-49.1971016 -36.3556175 0.0 2 402
-42.8974458 -44.225605 0.0 2 3028
-50.9071236 -41.1371536 0.0 2 3439
-48.6653481 -39.2973633 0.0 1 2441
-42.978611 -36.0045052 0.0 1 1051
-41.2678414 -31.3201332 0.0 1 1933
-43.6714478 -31.7184525 0.0 1 2967
-45.3844414 -36.4791451 0.0 1 1165
-38.8027802 -38.9124986 0.0 2 1702
-43.1800423 -49.5186768 0.0 1 239
-50.3578262 -52.1571121 0.0 2 3471
-42.334816 -47.1136665 0.0 1 1448
-51.2669716 -46.4480896 0.0 1 2589
-46.9496574 -34.569912 0.0 1 787
-38.8018418 -45.6619034 0.0 2 2734
-45.5839615 -43.2023392 0.0 1 1804
-42.2390251 -40.4357834 0.0 1 1494
-47.8353005 -51.823555 0.0 2 159
-51.7271614 -43.5635147 0.0 2 1906
-41.2232323 -39.4016838 0.0 2 1819
-49.3887787 -34.931717 0.0 1 1953
-47.4448662 -31.7479477 0.0 2 3217
-50.550354 -50.743763 0.0 1 3404
-40.5494309 -35.5545807 0.0 1 2887
-36.1819344 -31.7710667 0.0 2 2334
-45.1800652 -37.938736 0.0 2 2418
-42.034317 -41.8898278 0.0 2 2578
-51.673542 -28.8348294 0.0 1 1903
-36.072216 -39.7031822 0.0 2 3040
-51.8056717 -35.4257012 0.0 1 1084
-40.5228119 -50.5560494 0.0 2 1347
-46.1780319 -47.0623627 0.0 2 3109
-49.4636078 -49.8343888 0.0 2 3147
-46.1509667 -32.2381935 0.0 1 3520
-45.6861916 -49.9405746 0.0 1 293
-39.6625748 -41.2868347 0.0 2 3467
-47.8299675 -36.899746 0.0 1 2553
-44.5384941 -48.9957008 0.0 2 1507
-49.3235169 -43.105999 0.0 2 2256
-50.9798546 -33.0916328 0.0 1 2423
-44.1350403 -28.9231168 0.0 2 3579
-44.8175507 -47.5726471 0.0 1 1786
-45.6736222 -27.0385342 0.0 2 2584
-43.5589409 -39.8747102 0.0 2 2380
-46.5178871 -52.3375473 0.0 1 3398
-36.3577232 -30.3535786 0.0 1 955
-47.7458802 -45.0858307 0.0 2 934
-37.4462662 -39.3330536 0.0 1 1592
-40.3912583 -43.7945671 0.0 2 20
-39.7323456 -33.1481896 0.0 1 299
-47.5652123 -38.3497429 0.0 2 1022
-47.1090584 -41.2560539 0.0 1 2927
-37.5365715 -46.1976128 0.0 1 667
-38.1779633 -50.288311 0.0 2 2530
-39.2631188 -51.2080841 0.0 1 2587
-47.0478973 -49.4025879 0.0 2 1880
-36.8629684 -50.898224 0.0 1 2579
-40.671875 -42.372879 0.0 1 2229
-40.1485329 -30.4305344 0.0 2 1665
-36.4877701 -52.2567444 0.0 2 1491
-49.6796265 -48.3864021 0.0 1 3594
-48.8797952 -45.9861604 0.0 1 471
-38.4340248 -48.889187 0.0 1 3260
-50.3978462 -44.0614052 0.0 1 2519
-43.960991 -45.1926537 0.0 1 679
-48.10989 -50.3835411 0.0 1 2745
-44.4848366 -42.2882042 0.0 2 3273
-44.6926728 -40.8409386 0.0 1 2223
-46.9188156 -42.6856537 0.0 2 2974
-43.82444 -38.4120751 0.0 1 2525
-38.9981576 -37.4329643 0.0 1 3379
-35.157589 -37.3101578 0.0 2 384
-41.5004807 -44.710907 0.0 1 821
-51.0304222 -47.8762474 0.0 2 2528
-47.9908638 -43.6445351 0.0 1 2913
-50.1985054 -45.474411 0.0 2 356
-51.942421 -42.1314621 0.0 1 2593
-42.0614357 -48.5592957 0.0 2 54
-47.3212967 -48.0106163 0.0 1 2347
-51.1099663 -39.7138214 0.0 1 2439
-51.8713914 -50.1522141 0.0 2 248
-36.5256882 -36.899189 0.0 1 1776
-38.3973274 -41.926201 0.0 1 3029
-45.3226814 -44.6496277 0.0 2 2647
-39.0178604 -44.2540131 0.0 1 655
-41.2637215 -46.1309891 0.0 2 1525
-41.4592858 -37.9683572 0.0 1 2817
-49.5582619 -41.6547623 0.0 1 487
-35.361969 -29.2744064 0.0 2 1601
-47.6595726 -30.3095493 0.0 1 419
-39.6355324 -48.0853119 0.0 2 2096
-45.4385605 -51.3683624 0.0 2 1994
-43.1377754 -42.8150826 0.0 1 1808
-49.9887162 -38.778328 0.0 2 3475
-46.7281418 -35.9752046 0.0 2 852
-36.1684265 -46.2648277 0.0 2 1992
-36.5459786 -43.3618202 0.0 1 2073
-48.4417534 -40.740902 0.0 2 771
-41.0809898 -32.6982613 0.0 2 778
-49.0211067 -29.8047161 0.0 2 2648
-43.4509125 -33.1589661 0.0 2 1144
-50.7202721 -34.4717713 0.0 2 3193
-46.2414246 -38.8739624 0.0 1 1720
-37.2452088 -32.7222634 0.0 1 141
-40.4510536 -29.0778484 0.0 1 1877
-41.8960838 -35.0614014 0.0 2 3315
-51.6250649 -36.8686066 0.0 2 3026
-42.7927704 -37.4260903 0.0 2 1170
-50.2678146 -37.361599 0.0 1 2193
-45.2481423 -29.8509636 0.0 1 918
-48.2814407 -34.0594597 0.0 2 896
-49.8804322 -32.1470566 0.0 2 2756
-35.7648125 -47.6075669 0.0 1 197
-35.2667084 -43.9321556 0.0 2 1
-44.3003197 -35.4991532 0.0 2 1042
-38.1664734 -28.5581455 0.0 1 3079
-38.8058968 -30.886715 0.0 1 1835
-38.1891365 -35.0191154 0.0 1 2033
-46.6191406 -29.3505287 0.0 2 308
-42.1561394 -33.6543236 0.0 1 2555
-50.0814934 -30.7539063 0.0 1 2461
-44.3329582 -27.5041218 0.0 1 939
-48.5596886 -32.6225586 0.0 1 1935
-49.2516899 -28.4069367 0.0 1 1537
-45.8597374 -33.6172905 0.0 2 636
-44.518528 -34.087429 0.0 1 2477
-37.0318756 -34.1457062 0.0 2 826
-50.5799332 -27.9050218 0.0 2 652
-37.7717133 -29.9396306 0.0 2 2950
-38.6033058 -32.2676964 0.0 2 2420
-51.4026146 -30.2320709 0.0 2 700
-42.5855179 -30.7843781 0.0 2 2206
-45.0481682 -31.2925396 0.0 2 1643
-41.6823502 -28.3816395 0.0 2 1544
-35.5940094 -41.0159912 0.0 1 877
-48.1845894 -27.409811 0.0 2 3239
-46.831192 -27.9336988 0.0 1 589
-42.7823754 -29.3349934 0.0 1 2107
-35.699379 -34.6188889 0.0 1 3126
-35.7099915 -27.8856392 0.0 1 1390
-41.9105034 -27.0035133 0.0 1 3298
-52.17733 -48.7422104 0.0 1 2405
-35.0669403 -45.3432388 0.0 1 149
-47.3795014 -9.2412701 0.0 2 3673
-49.4971466 -10.5225945 0.0 2 2084
-46.7098427 -3.0837588 0.0 1 1620
-45.9837532 -25.6818924 0.0 1 1706
-36.985939 -22.0215454 0.0 2 584
-44.4052277 -9.1939726 0.0 1 1836
-40.2112656 -1.7090261 0.0 1 3194
-49.6928444 -3.1499193 0.0 2 1936
-45.1391296 -5.4492264 0.0 2 702
-36.5250969 -16.9291744 0.0 1 757
-47.3529205 -6.752203 0.0 2 110
-49.3740463 -13.0958281 0.0 2 1275
-40.8994218 -26.0181999 0.0 2 1569
-49.3112717 -15.651309 0.0 2 1739
-47.2291641 -14.3175821 0.0 2 1767
-47.0476761 -16.808897 0.0 2 3527
-40.0269318 -6.7333374 0.0 1 2959
-40.798996 -5.4833751 0.0 2 196
-38.586525 -15.7748547 0.0 1 777
-35.5848732 -14.3158827 0.0 1 523
-46.6064873 -12.944766 0.0 1 3536
-37.866272 -13.1929007 0.0 1 2961
-48.6600647 -14.3504601 0.0 1 399
-42.2744141 -5.4689279 0.0 1 1332
-43.2542572 -21.3794994 0.0 1 3186
-38.5698052 -14.4047527 0.0 2 2276
-46.6118698 -5.5121408 0.0 1 2561
-36.8482132 -20.677084 0.0 1 959
-42.2303009 -7.9387036 0.0 1 371
-48.3637161 -19.3252392 0.0 1 3282
-47.5297127 -1.8823426 0.0 2 2392
-38.7217026 -1.7347096 0.0 2 1112
-47.2445259 -25.1448422 0.0 2 1545
-39.8005257 -19.1497841 0.0 2 2534
-47.3779335 -11.7047196 0.0 2 146
-36.4087067 -13.126298 0.0 2 212
-44.4312287 -6.7319207 0.0 1 1474
-40.0406761 -9.160779 0.0 1 3550
-38.4973946 -11.8601284 0.0 2 3623
-51.0578918 -5.5819526 0.0 1 1446
-43.044384 -4.2110319 0.0 2 3553
-49.1564407 -20.5267887 0.0 2 682
-42.995926 -6.7319613 0.0 2 620
-50.5360947 -20.4928475 0.0 1 1484
-44.5267487 -14.0961084 0.0 1 3662
-42.3769875 -18.881218 0.0 2 3413
-38.6179924 -4.1897426 0.0 2 1249
-48.8233986 -6.77845 0.0 1 1201
-37.8441086 -10.513073 0.0 1 55
-35.8991852 -6.6649037 0.0 1 81
-46.4282646 -15.5037556 0.0 1 2303
-44.9873696 -15.4086075 0.0 2 3177
-43.0346947 -11.4647169 0.0 2 2522
-50.8175087 -13.1248407 0.0 1 479
-35.6738701 -9.209259 0.0 1 3406
-45.1843834 -10.3953848 0.0 2 3163
-40.887375 -22.0488796 0.0 1 793
-49.6124382 -5.5661407 0.0 2 3617
-40.7308617 -10.3926525 0.0 2 1627
-46.6357727 -10.4615097 0.0 1 3618
-50.0281601 -24.0694599 0.0 1 1157
-40.7807007 -7.9295592 0.0 2 2426
-35.7353096 -4.1396394 0.0 1 1358
-48.8168679 -9.2611809 0.0 1 335
-38.5845032 -9.2515555 0.0 2 2560
-45.1331558 -12.839162 0.0 2 390
-48.5099678 -16.8263798 0.0 1 1169
-46.1784554 -17.9935818 0.0 1 1682
-46.8227234 -19.3555565 0.0 2 2626
-46.6615105 -7.998229 0.0 1 2839
-43.4810524 -25.1650543 0.0 1 3162
-44.3074761 -20.3614063 0.0 2 546
-40.0728035 -4.2002811 0.0 1 2843
-49.5460778 -8.0197077 0.0 2 2242
-45.2015991 -7.9654676 0.0 2 216
-44.4664269 -4.1799178 0.0 1 871
-44.2684937 -16.5791531 0.0 1 2827
-41.1618233 -19.63027 0.0 1 809
-45.7665825 -20.3348618 0.0 1 3322
-49.1577835 -18.1019955 0.0 2 2970
-37.8931084 -5.4329934 0.0 1 553
-38.7263108 -18.2611256 0.0 1 2771
-42.976883 -9.173976 0.0 2 2730
-47.3737793 -4.3166928 0.0 2 1809
-50.993641 -8.1097136 0.0 1 2623
-48.7938271 -11.7795973 0.0 1 1229
-49.7934952 -25.4634114 0.0 2 1369
-48.8253746 -4.3415637 0.0 1 717
-43.272049 -26.5430775 0.0 2 1625
-39.8543168 -11.5173054 0.0 1 2328
-42.1723366 -10.3847914 0.0 1 1536
-44.7016945 -17.8994694 0.0 2 748
-44.4236107 -11.6196776 0.0 1 501
-50.6450997 -18.1678467 0.0 1 1824
-41.8137284 -20.9997712 0.0 2 3429
-36.0514679 -11.7607498 0.0 1 1213
-40.4224701 -23.3437138 0.0 2 2290
-43.5277291 -22.7752304 0.0 2 3181
-48.9490128 -1.8967966 0.0 1 267
-40.867157 -3.0028548 0.0 2 2248
-51.4209976 -19.3766899 0.0 2 366
-51.4139671 -16.951954 0.0 2 1789
-43.802372 -18.9942132 0.0 1 1794
-38.5789795 -6.7620311 0.0 2 1243
-36.4151192 -10.419179 0.0 2 2246
-36.4425202 -5.3924914 0.0 2 1715
-51.149437 -3.1530337 0.0 1 1538
-37.9715462 -17.063921 0.0 2 3647
-37.8391876 -8.0413151 0.0 1 2636
-43.1634293 -24.1519394 0.0 1 2051
-45.2749176 -2.9996878 0.0 2 2331
-42.3232422 -2.9815362 0.0 1 1778
-51.5105744 -14.3799582 0.0 2 2070
-36.417984 -7.9804698 0.0 2 2508
-50.7528839 -15.6733389 0.0 1 1099
-51.865139 -1.8822398 0.0 2 3419
-51.7169533 -9.3671198 0.0 2 548
-50.9232674 -10.5815106 0.0 1 1957
-51.7604218 -6.8398734 0.0 2 2770
-51.8651238 -4.4045015 0.0 2 2344
-48.4330063 -25.956789 0.0 1 1666
-36.0049896 -19.5732098 0.0 2 1850
-51.5791779 -11.8756286 0.0 2 2752
-36.2627716 -23.2179031 0.0 1 1488
-43.1415443 -1.7668532 0.0 2 3219
-36.4670296 -2.8857728 0.0 2 186
-37.9395562 -2.9099492 0.0 1 1043
-44.5807457 -1.7673413 0.0 1 333
-40.448227 -24.7310086 0.0 1 397
-35.7589493 -1.5841689 0.0 1 89
-35.16716 -17.389328 0.0 2 2140
-50.7892723 -26.4786949 0.0 1 2245
-35.0297737 -23.9465466 0.0 2 846
-35.7479096 -26.4732819 0.0 2 3457
-52.1368599 -26.0498467 0.0 2 1922
-35.0638542 -25.3195686 0.0 1 1558
-49.9912148 11.8704138 0.0 2 3030
-45.4293785 7.0718074 0.0 2 2912
-52.0736809 10.6011153 0.0 2 1036
-40.5281296 5.7366219 0.0 1 911
-44.7479401 20.3375702 0.0 1 1278
-48.0456886 17.6983414 0.0 1 3624
-45.3778 24.5551338 0.0 1 753
-44.5672379 18.8781186 0.0 2 1447
-49.8401872 6.9352646 0.0 2 116
-45.4595452 12.2063141 0.0 2 2106
-45.4072151 9.457182 0.0 2 740
-44.2532311 15.9576398 0.0 1 1911
-40.7122231 18.6733589 0.0 1 675
-40.1650238 12.9091168 0.0 2 2943
-49.1206894 10.7005158 0.0 1 2607
-42.733429 13.9820376 0.0 1 1730
-37.8166161 14.7766953 0.0 1 3134
-47.5910034 5.7328739 0.0 2 2490
-46.4693489 14.3687287 0.0 2 767
-45.1240883 23.1404018 0.0 2 178
-49.5605889 19.6607571 0.0 1 1734
-44.6513176 8.2567978 0.0 1 945
-38.879139 23.3171425 0.0 1 2115
-42.0908394 19.2195931 0.0 2 1970
-47.1306725 19.9631138 0.0 1 731
-41.0320511 -0.4817742 0.0 2 1130
-38.1005707 8.2691879 0.0 1 1899
-36.6458817 15.5842705 0.0 2 802
-45.4499703 4.5243035 0.0 2 894
-42.481411 -0.5118697 0.0 1 49
-45.6333695 17.9629898 0.0 1 3057
-36.0171051 3.4832773 0.0 1 2001
-41.2387962 6.963871 0.0 2 412
-41.3584137 23.0492001 0.0 1 1063
-44.0452538 14.5296908 0.0 2 1008
-49.3150559 13.1690922 0.0 1 2901
-36.4048653 23.5922604 0.0 1 3144
-46.8290558 7.0245433 0.0 1 3069
-35.2955856 15.078866 0.0 1 929
-41.7749787 16.338625 0.0 1 2529
-48.4222527 20.5247994 0.0 2 172
-42.6210594 7.0004277 0.0 1 257
-47.860283 24.2649193 0.0 1 165
-43.3197937 3.184629 0.0 2 28
-38.154026 17.5906964 0.0 2 2376
-39.2028923 5.427651 0.0 2 144
-46.8953286 4.4684696 0.0 1 2137
-49.3709183 15.6391907 0.0 1 3007
-47.5967827 3.2114987 0.0 2 1140
-49.8363571 9.4228268 0.0 2 303
-43.3736916 5.7662077 0.0 2 3497
-43.0972214 16.8883534 0.0 2 2174
-46.8204766 -0.599447 0.0 1 2330
-40.3718681 3.2328575 0.0 1 1788
-45.2623329 13.6689015 0.0 1 843
-49.6583824 -0.6814618 0.0 2 3561
-35.8199539 19.3158836 0.0 1 2957
-45.5434342 16.5261097 0.0 2 3281
-44.7539521 3.2528544 0.0 1 2353
-41.196991 21.5785027 0.0 2 1795
-46.7711373 15.687501 0.0 1 2569
-37.7041245 6.9278202 0.0 2 2692
-35.8723984 0.9223546 0.0 1 295
-49.8040428 4.3927488 0.0 2 1704
-51.8690072 17.7363796 0.0 2 3517
-38.320179 19.0490341 0.0 1 2411
-35.6246567 8.4326592 0.0 1 1386
-44.8531838 10.7626705 0.0 1 615
-47.6136589 8.2166929 0.0 2 3343
-43.1978798 8.3352013 0.0 2 1371
-46.8928528 1.9798602 0.0 1 743
-48.1067963 16.2782078 0.0 2 3489
-41.1913223 4.4750753 0.0 2 2800
-39.6043015 19.6025181 0.0 2 2654
-41.0823517 10.4898434 0.0 2 2996
-47.9306908 12.9742346 0.0 2 978
-46.884121 11.9901934 0.0 1 991
-49.0353279 0.6349919 0.0 1 1714
-38.0140724 -0.4764597 0.0 1 963
-46.0367775 20.894354 0.0 2 1673
-46.9263916 18.5353623 0.0 2 2310
-42.2946968 20.6336727 0.0 1 3568
-43.2494698 18.329504 0.0 1 916
-49.7608414 1.8904276 0.0 2 854
-45.3599472 -0.5511928 0.0 2 1030
-36.8220635 17.0169659 0.0 1 2097
-44.6813698 0.717165 0.0 1 1175
-47.5724182 0.6943893 0.0 2 927
-44.8033715 5.8135238 0.0 1 1674
-41.3237381 11.9485618 0.0 1 2071
-36.5998345 6.0600171 0.0 1 1697
-49.321579 18.2599411 0.0 2 3455
-38.6889076 21.8784332 0.0 2 1152
-49.0925484 5.7020731 0.0 1 3432
-46.2773399 22.2775364 0.0 1 1746
-50.0671234 22.3868466 0.0 2 1411
-51.3994293 11.8351298 0.0 1 1314
-36.5169831 -0.3446308 0.0 2 1944
-39.8328514 20.9883538 0.0 1 1384
-39.3166008 16.7211437 0.0 1 2433
-42.657444 12.5004349 0.0 2 3317
-46.8961258 9.4845267 0.0 1 1276
-37.4132729 21.2932167 0.0 1 3128
-45.4707413 1.9447104 0.0 2 2430
-51.9701538 5.5705891 0.0 2 3519
-36.2575379 12.8193722 0.0 1 1147
-40.3252297 0.7589632 0.0 1 3674
-43.9540138 11.7459488 0.0 1 1466
-42.1871719 9.4235268 0.0 1 1235
-39.1765251 15.2875586 0.0 2 1910
-39.3889084 8.8065911 0.0 2 2866
-36.2583466 22.1648636 0.0 2 552
-36.7905426 4.6641674 0.0 2 2166
-49.0459099 3.1517057 0.0 1 791
-43.2645188 0.6848884 0.0 2 2422
-38.845501 0.7540462 0.0 2 718
-41.5816918 14.8941918 0.0 2 220
-37.6358071 13.3202772 0.0 2 1898
-42.6491661 4.4639936 0.0 1 2667
-38.5038567 10.9952374 0.0 2 1016
-43.6092682 21.1892319 0.0 2 746
-49.0818024 8.1686945 0.0 1 3488
-47.6285019 10.7219858 0.0 2 1026
-36.0560532 11.3672485 0.0 2 3159
-38.890892 3.2006784 0.0 2 2786
-40.2989082 14.3336373 0.0 1 645
-42.5569382 1.9597932 0.0 1 2269
-43.7832299 22.6168156 0.0 1 2565
-37.1545525 19.9094106 0.0 2 142
-51.1826477 21.4800892 0.0 1 1541
-48.7026634 21.9259224 0.0 1 2679
-40.6375199 17.2123737 0.0 2 1116
-40.1812286 23.905613 0.0 2 424
-41.0887146 1.995051 0.0 2 3641
-35.6870651 17.883358 0.0 2 538
-50.4781151 17.4814263 0.0 1 273
-40.524868 8.0784969 0.0 1 759
-36.6705551 2.1119692 0.0 2 1072
-38.7868271 12.4249201 0.0 1 2747
-37.1284561 10.457222 0.0 1 105
-38.1413994 1.9752824 0.0 1 3237
-47.6003723 22.8724518 0.0 2 2776
-35.2957077 24.5321961 0.0 2 74
-50.9262544 20.0859165 0.0 2 476
-38.1807556 4.4621735 0.0 1 3232
-50.0711327 14.4347964 0.0 2 1095
-51.9670944 3.0685275 0.0 2 3405
-39.6843376 10.1773529 0.0 1 1576
-36.9378434 9.0662966 0.0 2 3263
-51.1434708 -0.6345881 0.0 1 1760
-51.5261574 14.3246584 0.0 1 1630
-42.7076721 23.5559197 0.0 2 3643
-51.2632103 6.8522406 0.0 1 3526
-51.2358284 1.8466656 0.0 1 2797
-51.9273796 0.5903596 0.0 2 2496
-51.2314072 4.3428645 0.0 1 711
-51.2910385 9.407753 0.0 1 25
-50.356556 23.7989369 0.0 1 2281
-37.7376557 24.2029381 0.0 2 744
-35.4278832 6.9438562 0.0 2 388
-51.6806412 24.3239422 0.0 2 1747
-51.9394798 8.1055136 0.0 2 902
-52.0547066 19.1854611 0.0 1 2801
-52.1233635 13.0347652 0.0 2 2354
-35.0907936 13.6499176 0.0 2 2066
-49.2414894 24.7291966 0.0 2 2368
-45.7618599 27.4417439 0.0 2 3244
-36.0995522 30.3433514 0.0 1 133
-38.9282838 32.8239212 0.0 2 3155
-48.6785317 39.3762436 0.0 1 1993
-44.5572548 36.37463 0.0 2 1200
-48.2371445 44.4968834 0.0 2 2414
-42.4928055 49.1453934 0.0 1 145
-46.7047844 25.1295052 0.0 2 1184
-51.6601906 41.8354836 0.0 2 3369
-39.2770844 26.1917992 0.0 2 2434
-49.8065224 28.9872608 0.0 2 1118
-46.0762482 38.2758331 0.0 2 1801
-47.2588501 46.877964 0.0 2 1791
-48.1644058 35.0097656 0.0 1 275
-43.863102 32.158886 0.0 2 238
-48.4887047 37.9376564 0.0 2 3601
-48.26894 27.0648899 0.0 2 820
-38.7936058 40.9156304 0.0 1 749
-41.729805 43.3957787 0.0 2 1435
-50.0514336 39.8315544 0.0 2 2182
-46.9085542 26.5104981 0.0 1 3504
-40.7132454 36.2112923 0.0 1 2509
-48.3905449 45.94582 0.0 1 2639
-49.0337906 32.6811905 0.0 1 3142
-45.3855248 42.0656624 0.0 1 2799
-43.611187 38.7337761 0.0 2 3111
-51.0203285 37.5171166 0.0 2 870
-37.9338264 25.6382275 0.0 1 3104
-36.4741707 33.0928917 0.0 2 2978
-46.6874008 42.5772934 0.0 2 1719
-41.9979898 27.2844715 0.0 1 2795
-43.4886818 29.2174149 0.0 1 2501
-44.8486404 31.181118 0.0 1 3170
-52.0827942 35.241745 0.0 2 1132
-35.1474876 32.602047 0.0 1 565
-35.8978806 28.8909092 0.0 2 2840
-51.1701279 38.9348184 0.0 1 3330
-50.2224083 31.8309899 0.0 2 566
-45.1621018 40.6073914 0.0 2 1996
-39.4633866 45.1378212 0.0 1 663
-40.4471779 34.8055535 0.0 2 2728
-39.9097024 48.0051765 0.0 2 8
-44.2079887 42.9615746 0.0 2 2820
-41.7467766 25.8335533 0.0 2 1226
-38.2684937 36.5319519 0.0 1 1191
-41.012661 29.6092625 0.0 1 903
-47.298275 29.4174309 0.0 2 1611
-46.5781403 33.3928833 0.0 1 3055
-38.5317803 29.9131222 0.0 1 454
-41.0012321 47.0817375 0.0 1 91
-47.0144272 35.9266664 0.0 2 2706
-43.3298874 27.7748013 0.0 2 164
-44.2323799 25.4785919 0.0 2 2382
-50.2966156 41.2488022 0.0 1 557
-43.868885 49.7046967 0.0 2 1449
-48.4343682 28.5195675 0.0 1 1939
-39.2450943 43.6874771 0.0 2 2176
-43.2075501 35.855648 0.0 1 2605
-42.9023324 24.9626256 0.0 1 2247
-35.1590424 50.2605858 0.0 1 913
-43.7648049 40.160553 0.0 1 87
-41.9551544 44.8272591 0.0 1 1736
-49.1518097 42.1775436 0.0 2 1546
-39.9038048 30.534214 0.0 2 3607
-37.6562386 41.7496681 0.0 2 2610
-41.1282921 39.0693283 0.0 2 2342
-42.5488625 31.5571575 0.0 1 577
-51.8689118 25.7765312 0.0 1 3510
-43.407547 46.787983 0.0 1 935
-47.963276 33.5689698 0.0 2 2010
-47.3887634 48.2939301 0.0 1 2175
-46.28685 49.2448845 0.0 2 2945
-38.3465653 28.4823456 0.0 2 3068
-36.6569824 34.5001412 0.0 1 2319
-44.7220803 37.7993965 0.0 1 2563
-49.6287422 37.0253525 0.0 1 1678
-37.013031 45.4860153 0.0 1 2177
-41.401638 32.50177 0.0 2 522
-42.946457 34.4474449 0.0 2 182
-37.6242867 32.2713623 0.0 1 3548
-49.6961518 46.5631867 0.0 2 2292
-49.3527031 43.5749169 0.0 1 111
-49.4623719 35.5961762 0.0 2 106
-35.8947372 46.3695831 0.0 2 2052
-44.937149 48.7636223 0.0 1 1256
-43.3035927 45.3127098 0.0 2 2576
-45.9738922 28.858925 0.0 1 2649
-39.8138352 38.4959412 0.0 1 2917
-41.253418 40.5069962 0.0 1 67
-44.4428368 26.9166336 0.0 1 2067
-35.4653168 43.4860688 0.0 1 3063
-47.6006432 30.8102246 0.0 1 3570
-38.592228 47.4473953 0.0 1 1057
-49.4176712 26.1722813 0.0 1 3640
-42.2802544 38.2168961 0.0 1 1732
-40.1481247 41.4226609 0.0 2 2456
-42.3003426 47.6928826 0.0 2 3435
-44.0917969 33.5651627 0.0 1 393
-41.6065941 33.9262086 0.0 1 1981
-48.7185211 48.84235 0.0 2 2888
-49.9547158 30.3999024 0.0 1 3021
-47.1985474 37.3670502 0.0 1 2035
-40.3907738 25.3245735 0.0 1 3362
-51.8002358 43.2390595 0.0 1 1524
-45.3741951 34.0693626 0.0 2 966
-36.1426277 47.8261147 0.0 1 3440
-46.2702065 39.6904564 0.0 1 3015
-45.9059678 46.37957 0.0 1 1436
-50.6619644 44.0911598 0.0 2 4
-36.3856125 41.1778297 0.0 1 855
-47.529686 40.2835579 0.0 2 1501
-45.748478 44.9623756 0.0 2 482
-42.3558884 30.1437779 0.0 2 222
-36.199398 39.7338295 0.0 2 3261
-49.9111596 48.0133171 0.0 1 2697
-39.590046 37.0910149 0.0 2 1805
-37.4091301 30.870327 0.0 2 1257
-44.829525 29.7645722 0.0 2 1930
-42.8286782 42.4283676 0.0 1 3210
-37.9043084 43.1517487 0.0 1 3009
-36.7651863 44.0338173 0.0 2 3014
-47.7875099 41.6861458 0.0 1 3236
-45.6506386 35.4650955 0.0 1 173
-51.5170555 50.00951 0.0 1 879
-46.8732986 44.0071564 0.0 1 3326
-42.6302796 41.010582 0.0 2 3363
-40.4012337 42.8380089 0.0 1 3422
-39.146698 34.255558 0.0 1 2673
-38.6845742 39.4722481 0.0 2 3501
-40.7732735 45.7095299 0.0 2 1749
-44.7542763 47.2984924 0.0 2 2810
-42.0676613 36.7657891 0.0 2 64
-44.4327431 44.3674622 0.0 1 1802
-40.0619125 49.4403153 0.0 1 3270
-35.7717819 36.9072762 0.0 1 585
-35.409832 25.9891568 0.0 1 3266
-37.9861566 35.0918579 0.0 2 830
-50.8030854 45.5814209 0.0 1 3582
-35.5630684 35.4269219 0.0 2 2500
-38.3632012 46.0341263 0.0 2 3515
-35.2195397 42.0663109 0.0 2 2060
-37.5209389 48.4037132 0.0 2 1555
-40.0755653 31.9316274 0.0 1 899
-37.0243759 27.9536592 0.0 1 1482
-37.1298256 37.3955231 0.0 2 2168
-37.6601525 49.840374 0.0 1 2873
-41.3126259 50.0636025 0.0 2 1843
-51.2623558 48.5668602 0.0 2 1503
-51.6024742 32.2601853 0.0 1 961
-50.6989327 34.9644624 0.0 1 1919
-39.4865532 27.6270561 0.0 1 1394
-40.827652 28.1639309 0.0 2 305
-50.7617226 26.6679268 0.0 2 1858
-37.3420982 38.8321533 0.0 1 1113
-50.9298248 28.117363 0.0 1 539
-36.7647896 26.5110855 0.0 2 2074
-49.0143585 50.305748 0.0 1 2449
-38.9988214 50.4025765 0.0 2 2252
-34.9869538 48.7881241 0.0 2 3513
-52.1749535 46.116951 0.0 2 2558
-29.4973297 -40.6956597 0.0 2 2868
-19.4475994 -40.448803 0.0 1 1083
-24.2787781 -34.5506897 0.0 1 1640
-33.5049629 -47.2824593 0.0 1 2537
-22.372221 -46.0453529 0.0 2 2922
-34.0402069 -36.3932457 0.0 1 995
-30.578394 -49.7015572 0.0 2 100
-24.4949456 -33.1097717 0.0 2 264
-27.9482938 -42.695385 0.0 2 1273
-22.2175255 -39.4453507 0.0 2 3229
-25.412281 -50.1789551 0.0 1 2171
-29.7152367 -47.343956 0.0 2 3036
-25.3053246 -35.5470352 0.0 2 3651
-30.1547604 -29.7803517 0.0 2 274
-20.3913002 -28.0253716 0.0 2 2690
-22.0614796 -32.6782341 0.0 2 520
-18.850731 -36.5865479 0.0 2 234
-21.2947693 -37.0497093 0.0 2 2200
-18.1306839 -40.9998932 0.0 2 2918
-22.8476162 -43.1516533 0.0 1 2969
-32.7160378 -36.9442826 0.0 2 2132
-32.601593 -44.9110718 0.0 1 1796
-25.5293865 -42.2159462 0.0 2 232
-29.1314201 -35.434433 0.0 1 1372
-33.5715409 -39.2926903 0.0 2 90
-23.4213314 -32.1708145 0.0 1 920
-18.5676937 -31.3601456 0.0 1 65
-21.265707 -45.0653267 0.0 1 2919
-21.9211006 -40.8633156 0.0 1 2093
-28.6018105 -46.4103737 0.0 1 3352
-24.5765324 -39.8132363 0.0 2 3373
-27.1013546 -40.2324181 0.0 2 604
-25.8548642 -32.645504 0.0 1 1967
-29.059248 -51.6481247 0.0 2 3339
-30.7480603 -33.5417214 0.0 1 2811
-24.0644932 -50.7092133 0.0 2 688
-23.7097855 -45.54665 0.0 1 117
-24.5593777 -47.9123306 0.0 1 1985
-33.7133446 -45.8681488 0.0 2 1054
-26.8981782 -33.6437569 0.0 2 1297
-26.1312542 -37.9104234 0.0 2 160
-21.5327263 -43.6379586 0.0 2 1261
-26.3376026 -44.595501 0.0 2 3649
-18.6280976 -38.0341148 0.0 1 1069
-23.6488438 -30.757309 0.0 2 252
-23.0390778 -41.7798615 0.0 2 394
-22.8164978 -28.4985771 0.0 2 204
-18.8596706 -44.7411537 0.0 1 391
-18.0935345 -34.1481857 0.0 2 2854
-22.1659584 -47.4760933 0.0 1 1131
-31.0667267 -32.1233788 0.0 2 3024
-20.2154179 -36.0768318 0.0 1 1231
-28.0482121 -49.2456284 0.0 2 2112
-19.6968785 -39.0250969 0.0 2 1831
-29.0812244 -28.8083458 0.0 1 2635
-28.590868 -38.2655335 0.0 2 3056
-31.6270771 -35.9485626 0.0 1 865
-30.1648521 -44.4935494 0.0 1 445
-23.0128536 -49.8146668 0.0 1 247
-20.4171963 -42.7610779 0.0 1 289
-20.5586186 -41.3379364 0.0 2 2902
-27.7268505 -35.9740068 0.0 2 3563
-18.4061585 -47.5545235 0.0 2 692
-23.5026474 -38.899006 0.0 1 2482
-20.8457166 -48.0439873 0.0 2 882
-19.671463 -32.2748337 0.0 2 457
-20.5254116 -34.6420517 0.0 2 3099
-21.7150765 -50.4006691 0.0 2 2518
-26.1445046 -45.9949074 0.0 1 3216
-25.0227337 -36.971119 0.0 1 1530
-32.7048569 -30.1862755 0.0 2 2486
-26.9920692 -48.2659111 0.0 1 2989
-34.3469353 -41.5723801 0.0 2 1441
-26.8857232 -41.6767884 0.0 1 1252
-23.2496052 -48.4033547 0.0 2 474
-31.0745144 -46.8346443 0.0 1 1035
-17.9020368 -27.5861969 0.0 2 432
-22.9403668 -35.0898819 0.0 2 3137
-25.2914524 -43.6161385 0.0 1 1539
-30.3670311 -43.0609207 0.0 2 3671
-25.9595146 -39.3594475 0.0 1 3290
-21.0891304 -38.5242958 0.0 1 2495
-22.5498486 -29.8740064 0.0 1 1672
-20.6281395 -49.4871025 0.0 1 425
-19.2549935 -49.9496804 0.0 2 1186
-27.6941529 -44.1228294 0.0 1 2162
-30.2441139 -36.3913612 0.0 2 1781
-29.3197537 -27.4114685 0.0 2 684
-27.711504 -29.2794571 0.0 2 932
-30.8157978 -40.2204361 0.0 1 1221
-22.6065579 -36.5220909 0.0 1 1115
-33.9316864 -51.9760094 0.0 2 3523
-29.4352322 -48.7637749 0.0 1 671
-19.1185665 -43.3292236 0.0 2 2226
-31.6975975 -42.5525589 0.0 1 1364
-21.8709642 -34.1159248 0.0 1 1087
-28.8174229 -45.0087662 0.0 2 1313
-25.6903687 -48.8043671 0.0 2 376
-24.7848454 -46.4761467 0.0 2 1285
-23.9340382 -44.0916061 0.0 2 3491
-21.7164212 -27.4723511 0.0 1 3494
-27.2790508 -46.8280792 0.0 2 1813
-25.0220375 -30.2573166 0.0 1 625
-23.7000027 -37.4626122 0.0 2 972
-24.3816147 -41.2453537 0.0 1 2869
-31.7846031 -49.028717 0.0 1 1634
-27.4376049 -37.357441 0.0 1 2017
-19.7284642 -47.0843506 0.0 1 823
-20.1506481 -29.4386368 0.0 1 703
-33.9851266 -29.5008965 0.0 1 1670
-19.9389 -45.6738739 0.0 2 2960
-26.636406 -35.0474052 0.0 1 2399
-18.1837368 -48.9691468 0.0 1 2325
-19.4725552 -33.6875344 0.0 1 3434
-29.9615078 -37.8211212 0.0 1 3078
-21.2184506 -30.4038868 0.0 2 1669
-34.4339028 -49.64114 0.0 1 3294
-18.7639885 -29.9078178 0.0 2 1002
-31.4497738 -52.0229759 0.0 2 3299
-28.2820912 -33.1510658 0.0 1 423
-31.9440442 -41.144886 0.0 2 3287
-29.3198376 -42.1334229 0.0 1 156
-32.1869354 -47.7291756 0.0 2 866
-33.2092896 -34.0350113 0.0 1 2185
-28.5651703 -31.6923237 0.0 2 1523
-26.5519352 -51.0416451 0.0 2 2796
-24.1463795 -27.9310646 0.0 1 2936
-20.961239 -31.7891083 0.0 1 1238
-33.5075875 -32.6215363 0.0 2 2312
-25.2940788 -28.8297425 0.0 2 24
-28.4379502 -39.7051201 0.0 1 450
-31.277565 -45.4159508 0.0 2 1581
-27.4729061 -30.6982994 0.0 1 1274
-32.8055954 -43.5026169 0.0 2 30
-27.9218274 -50.6768379 0.0 1 2006
-33.272358 -40.6851502 0.0 1 437
-31.0790787 -38.8077469 0.0 2 3074
-34.534462 -48.2541504 0.0 2 1637
-20.1638699 -52.3597946 0.0 2 3542
-31.8405228 -34.4963494 0.0 2 2336
-30.3986931 -51.1293793 0.0 1 3498
-33.8467064 -50.5445862 0.0 1 2993
-32.4229317 -31.6302986 0.0 1 2567
-32.462162 -38.3243256 0.0 1 2597
-26.0992641 -31.175539 0.0 2 2910
-34.1592217 -42.9873924 0.0 1 2885
-19.0925655 -51.3791962 0.0 1 1005
-29.4143982 -34.0288849 0.0 2 2538
-31.5116673 -29.4828415 0.0 1 2037
-29.966671 -31.2261295 0.0 1 2025
-23.9767818 -52.1457558 0.0 1 137
-26.627245 -28.3321533 0.0 1 1183
-21.5096855 -51.8294716 0.0 1 427
-17.9785538 -42.4548569 0.0 1 2199
-34.3207626 -34.9469872 0.0 2 2485
-19.2863217 -27.109436 0.0 1 2613
-34.8370743 -32.1627922 0.0 1 83
-26.8056832 -26.9348316 0.0 2 1293
-17.8057575 -35.5953903 0.0 1 3280
-34.9222832 -38.746399 0.0 1 2909
-30.6063214 -26.8307724 0.0 1 1792
-26.353775 -52.4651222 0.0 1 2285
-17.7598591 -51.8198853 0.0 2 2504
-21.8459492 -19.3223457 0.0 2 734
-28.8666478 -15.5265255 0.0 1 2031
-23.1180744 -12.187315 0.0 1 339
-27.5074425 -15.9856834 0.0 2 798
-26.5740071 -21.7251721 0.0 1 2459
-29.0637951 -22.128933 0.0 1 2911
-18.8709698 -5.7132344 0.0 2 1343
-28.446785 -18.3569718 0.0 2 486
-18.3663311 -24.745184 0.0 1 2833
-21.0774193 -23.6755924 0.0 2 2024
-27.4067288 -24.0740585 0.0 1 815
-20.0156479 -22.7077732 0.0 1 359
-26.0314484 -24.5278034 0.0 2 1769
-26.6747761 -13.6351366 0.0 2 988
-23.9839058 -14.6215678 0.0 1 1103
-34.0816841 -16.4099579 0.0 1 1395
-24.6010094 -6.3491206 0.0 2 3199
-23.5168247 -1.8326769 0.0 2 2712
-29.8240433 -17.869856 0.0 1 1923
-23.3526821 -25.5577145 0.0 1 1694
-32.2340775 -24.9600888 0.0 1 2689
-31.3723335 -6.724999 0.0 1 331
-22.7702408 -21.7362004 0.0 2 32
-24.9031048 -23.5648575 0.0 1 851
-29.6990776 -11.3840561 0.0 1 993
-32.039959 -2.9808214 0.0 2 1351
-24.7660542 -10.3005591 0.0 1 933
-24.108141 -21.1976681 0.0 1 3486
-28.3559933 -11.7773962 0.0 2 3551
-30.0042286 -16.4531212 0.0 2 3463
-22.5364895 -2.8972086 0.0 1 3600
-24.9833432 -8.9257278 0.0 2 3125
-31.6806278 -21.1356812 0.0 2 2410
-31.0426731 -9.116396 0.0 1 1227
-20.9074174 -25.131979 0.0 1 3316
-23.5713406 -5.3972869 0.0 1 1676
-22.7943974 -8.2923145 0.0 2 1639
-23.4642906 -17.4296379 0.0 2 3249
-18.8629646 -2.998176 0.0 2 1014
-18.4141178 -16.5101586 0.0 2 3565
-27.3184567 -17.4345265 0.0 1 1516
-19.8156624 -16.0515308 0.0 1 3154
-22.7619095 -4.2716255 0.0 2 3257
-28.2214871 -19.7673264 0.0 1 949
-30.610178 -20.1468639 0.0 1 2749
-25.1979466 -22.1452236 0.0 2 404
-31.4425316 -16.028944 0.0 1 2395
-31.476368 -22.5694924 0.0 1 2047
-21.1903229 -2.3963008 0.0 2 626
-21.7550335 -12.7499028 0.0 2 2694
-28.051096 -13.1754656 0.0 1 121
-20.6789723 -11.727026 0.0 1 1562
-30.5550633 -13.8896618 0.0 1 3646
-23.4339142 -10.7873659 0.0 2 3425
-20.993988 -10.2738781 0.0 2 714
-25.7357674 -25.986742 0.0 1 167
-19.2471142 -12.1705694 0.0 2 2264
-24.2042599 -13.1748161 0.0 2 3633
-20.0694218 -14.6143847 0.0 2 1062
-18.2378597 -18.0168667 0.0 1 653
-20.7684708 -18.3632603 0.0 1 19
-23.215725 -18.8489114 0.0 1 507
-22.3515911 -16.479662 0.0 1 2261
-24.1935196 -7.7864914 0.0 1 2681
-24.808321 -17.0253925 0.0 1 1969
-25.0480652 -15.5784626 0.0 2 3331
-28.2214852 -26.4418736 0.0 1 1241
-30.7068272 -10.4707852 0.0 2 1044
-27.2143231 -10.9898072 0.0 1 3166
-30.9084378 -3.9219494 0.0 1 3533
-33.4455071 -2.7941282 0.0 1 1397
-21.6769619 -20.7542649 0.0 1 3560
-21.573288 -7.6194582 0.0 1 2393
-19.5476704 -25.6629238 0.0 2 2136
-22.592474 -15.0351582 0.0 2 1589
-26.8584118 -20.2748852 0.0 2 1098
-20.9760876 -16.9435502 0.0 2 3058
-19.2369824 -4.3688674 0.0 1 1318
-19.4036141 -18.8841954 0.0 2 960
-32.5687332 -23.5693417 0.0 2 68
-21.4848671 -14.1585808 0.0 1 1688
-18.9913616 -13.6313916 0.0 1 2251
-19.2136326 -20.3406029 0.0 1 1428
-33.4302864 -19.2598324 0.0 2 198
-30.1224499 -23.096035 0.0 2 2316
-20.1489639 -7.9421736 0.0 2 3173
-24.9122106 -1.7902102 0.0 1 659
-18.6359158 -23.2237377 0.0 2 200
-31.7362175 -14.6274176 0.0 2 3010
-32.6369934 -16.8936006 0.0 2 2472
-22.3645725 -9.7722035 0.0 1 313
-25.8136158 -11.272727 0.0 2 3667
-20.3061524 -21.2775936 0.0 2 2218
-24.3431168 -19.7821007 0.0 2 3171
-29.8768464 -24.5388603 0.0 1 1668
-32.3455505 -18.2921124 0.0 1 1187
-25.9285908 -17.9521198 0.0 2 756
-25.579916 -12.7442494 0.0 1 1989