ITEM: TIMESTEP
0
ITEM: NUMBER OF ATOMS
3680
ITEM: BOX BOUNDS xy xz yz pp pp pp
-5.0364640626983686e+01 4.9364640626983686e+01 0.0000000000000000e+00
-5.0660512655897513e+01 4.8660512655897513e+01 0.0000000000000000e+00
-2.9917110414581821e+01 2.9917110414581821e+01 0.0000000000000000e+00
ITEM: ATOMS id x y z v_pasn v_pass c_ho[1] c_ho[2] v_totho 
1 -49.9597 -50.3191 0.70918 10209.9 -11349.2 0.0127045 -0.999323 0.999404 
2 -47.4212 -50.288 0.824797 23222.8 818.761 -0.040648 -0.994675 0.995505 
3 -44.8849 -50.3285 0.827395 -3347.87 -5211.88 -0.0273864 -0.999454 0.999829 
4 -42.4531 -50.3491 1.11155 -8944.12 2681.67 -0.00234488 -0.999137 0.99914 
5 -39.9295 -50.3755 0.974186 15918.8 -1418.51 0.0817148 -0.994567 0.997919 
6 -37.4569 -50.3384 1.0568 11622.9 -24204.8 -0.0262706 -0.986783 0.987132 
7 -34.925 -50.3827 1.16611 7035.61 -12566.7 0.0533624 -0.997002 0.998429 
8 -48.7451 -48.1497 0.649065 4844.89 -4840.75 -0.05375 -0.993623 0.995076 
9 -48.7134 -49.5947 0.76682 4388.65 -5687.43 -0.0560087 0.997811 0.999381 
10 -46.2091 -48.2058 0.759094 -4032.92 -903.53 0.060546 -0.995159 0.996999 
11 -46.1312 -49.6057 0.839459 -8011.02 434.978 -0.0163326 0.993305 0.993439 
12 -43.6844 -48.2151 0.843373 -5515.63 -12919.3 0.034964 -0.998598 0.99921 
13 -43.6467 -49.6275 0.960961 -30780.3 3854.64 0.00192239 0.998216 0.998218 
14 -41.1673 -48.2057 1.00211 3841.66 -2586.69 -0.0261943 -0.997106 0.99745 
15 -41.2278 -49.6309 1.08502 1074.78 -11134.5 0.0328543 0.997225 0.997766 
16 -38.6894 -48.1586 0.852803 -17826.8 13974.2 0.0244864 -0.999458 0.999758 
17 -38.6863 -49.563 0.911975 3474.96 3155.38 -0.0182245 0.993141 0.993308 
18 -36.1904 -48.2294 0.856245 8203.31 -6315.38 -0.0534742 -0.996023 0.997457 
19 -36.1779 -49.6887 1.02324 3321.02 -11598.5 0.0270369 0.995108 0.995476 
20 -49.8883 -46.0048 0.317119 -40507.4 27975.7 -0.0351087 -0.990011 0.990633 
21 -49.9949 -47.3996 0.4461 1595.3 6730.92 0.0792746 0.990612 0.993779 
22 -47.4129 -46.0396 0.350436 10335 -4334.51 -0.0570277 -0.996997 0.998627 
23 -47.4558 -47.5036 0.541961 12199 -3255.67 0.0773165 0.993322 0.996327 
24 -44.9542 -46.0645 0.498037 -317.224 4688.9 -0.0222282 -0.998269 0.998516 
25 -44.9388 -47.4816 0.688568 12137.7 -8940.63 0.000158863 0.999731 0.999731 
26 -42.4793 -46.0468 0.778362 -5604.9 4445.04 -0.0243282 -0.997659 0.997956 
27 -42.4506 -47.4798 0.824341 5681.03 -17912.1 -0.0427301 0.998992 0.999906 
28 -39.9219 -46.0536 0.742953 3479.94 2472.13 0.0101551 -0.998755 0.998806 
29 -39.9242 -47.4759 0.885834 -17694.7 17500.9 -0.0241704 0.999404 0.999696 
30 -37.3973 -46.0452 0.804521 -29209 -3577.57 -0.013969 -0.998755 0.998853 
31 -37.4341 -47.4276 0.842769 -9619.54 -11257.6 0.0717358 0.995309 0.997891 
32 -34.9021 -46.0123 0.78067 6717.78 2608.1 -0.0336382 -0.996665 0.997232 
33 -34.9317 -47.5246 0.858995 10066 -821.718 0.0146122 0.998675 0.998782 
34 -48.6325 -43.8811 0.118983 -32648.8 -9155.55 0.0129459 -0.999001 0.999085 
35 -48.6544 -45.2665 0.21194 -6543.51 -1996.22 0.033502 0.997593 0.998155 
36 -46.1992 -43.8524 0.247324 2510.33 6891.4 -0.00343883 -0.99782 0.997826 
37 -46.1672 -45.3111 0.35794 1978.69 -1885 0.00463244 0.997678 0.997689 
38 -43.6616 -43.9054 0.601886 -351.936 -3741.28 0.0118605 -0.997919 0.99799 
39 -43.6821 -45.3317 0.534646 -4304.08 10400.9 0.0281501 0.999442 0.999839 
40 -41.2161 -43.9062 0.617755 4354.69 -9850.09 -0.0488685 -0.996888 0.998085 
41 -41.1975 -45.3597 0.753407 7732.48 -2528.14 -0.00667541 0.997298 0.997321 
42 -38.7032 -43.953 0.428969 -305.2 317.132 0.0309691 -0.997574 0.998054 
43 -38.648 -45.3411 0.688587 -16744.2 7587.66 -0.0369627 0.997176 0.997861 
44 -36.1985 -43.8641 0.82889 -5347.68 9906.94 0.0569662 -0.994424 0.996055 
45 -36.1558 -45.3255 0.818398 -2675.24 2255.76 -0.053317 0.997963 0.999386 
46 -49.8973 -41.7507 -0.143991 11104.9 2650.14 0.0261605 -0.999134 0.999477 
47 -49.8907 -43.1755 0.0573818 10138.1 11164.3 -0.00544562 0.99953 0.999545 
48 -47.3895 -41.7371 -0.0226623 -1463.41 -1002.01 -0.00266438 -0.995591 0.995594 
49 -47.4214 -43.1554 0.0938435 -20301.8 845.664 0.000912874 0.99881 0.998811 
50 -44.9444 -41.7168 0.387275 2671.98 -5628.51 0.0269258 -0.998252 0.998615 
51 -44.921 -43.1659 0.46806 9179.11 -3245.33 0.0219332 0.998115 0.998356 
52 -42.4731 -41.6853 0.458804 11720.6 3035.33 -0.0142173 -0.997008 0.997109 
53 -42.4417 -43.1453 0.57195 4349.53 -5606.54 -0.0230071 0.996074 0.99634 
54 -39.9601 -41.7731 0.510851 14562.5 7919.61 -0.0367215 -0.997863 0.998538 
55 -39.9521 -43.2257 0.500957 3276.38 -8111.34 0.0279491 0.998609 0.999 
56 -37.4369 -41.7673 0.627257 4710.44 4370.82 -0.025678 -0.999303 0.999633 
57 -37.435 -43.2291 0.622126 10.0074 24454.3 -0.0454126 0.996337 0.997372 
58 -34.9401 -41.7608 0.924188 -13389.4 12572.8 0.0247646 -0.99961 0.999917 
59 -34.9332 -43.1689 0.922797 -9699.98 108.663 -0.000592611 0.99886 0.99886 
60 -48.6092 -39.5619 -0.136414 -4832.83 9289.92 -0.0182569 -0.999585 0.999752 
61 -48.6322 -40.9801 -0.170672 2199.13 2247.31 0.0162662 0.997945 0.998078 
62 -46.1288 -39.5473 0.146407 -10904.3 6486.98 -0.0413502 -0.99731 0.998167 
63 -46.1891 -40.9727 0.178819 -2478.76 -4668.51 0.0140327 0.994155 0.994254 
64 -43.6561 -39.5512 0.254099 -713.665 10483.4 -0.0653947 -0.99638 0.998523 
65 -43.7233 -40.9688 0.391547 -9806.87 1224.49 0.018034 0.995601 0.995765 
66 -41.1441 -39.5715 0.515315 -2080.92 -5539.92 -0.0669723 -0.997659 0.999904 
67 -41.1824 -41.0058 0.495118 1920.31 712.488 0.102486 0.994602 0.999868 
68 -38.6394 -39.6186 0.598589 -14344.1 3412.4 -0.0134693 -0.998305 0.998396 
69 -38.6763 -41.041 0.556858 2884.65 12481.6 0.0377367 0.998884 0.999597 
70 -36.1814 -39.6147 0.840459 -537.207 349.16 0.00173877 -0.999235 0.999236 
71 -36.1735 -41.0721 0.807124 -708 11097.9 0.000779719 0.999016 0.999017 
72 -49.8254 -37.4269 -0.20525 -7004.6 -9935.08 0.000263422 -0.99869 0.99869 
73 -49.8593 -38.8344 -0.154208 -5582.73 7449.72 0.0200779 0.999032 0.999234 
74 -47.3509 -37.3793 -0.0256206 1466.76 2756.24 0.0444124 -0.99799 0.998978 
75 -47.3561 -38.8361 0.00208067 1851.82 17868.9 0.00371431 0.999974 0.999981 
76 -44.9087 -37.388 0.014899 -3091.79 -5665.7 -0.0328375 -0.996683 0.997223 
77 -44.8883 -38.8271 0.124525 -6659.18 1473.99 -0.00886034 0.999601 0.99964 
78 -42.423 -37.3521 0.203711 3669.19 -5781.21 -0.0241643 -0.988288 0.988583 
79 -42.3794 -38.8318 0.353542 15748 -44.0745 -0.00307371 0.998153 0.998158 
80 -39.8901 -37.4322 0.420409 2478.99 -3612.39 0.010064 -0.999919 0.99997 
81 -39.8867 -38.8859 0.592627 1608.54 -1639.23 0.0296003 0.999014 0.999452 
82 -37.3988 -37.4497 0.510934 7063.95 219.223 0.00922457 -0.998772 0.998815 
83 -37.411 -38.8763 0.745757 -836.367 957.775 0.00579165 0.998845 0.998862 
84 -34.8978 -37.4284 0.768282 -8828.6 -30853 -0.0447052 -0.998064 0.999065 
85 -34.9487 -38.8806 0.84603 3248.34 -4502.88 0.0166606 0.997851 0.99799 
86 -48.5702 -35.2529 -0.372233 10950.4 -6168.29 0.0261913 -0.99883 0.999174 
87 -48.585 -36.6907 -0.316382 -1119.79 2702.93 -0.0163607 0.999305 0.999439 
88 -46.1011 -35.2061 -0.241884 -13245 5840.52 0.00721439 -0.999312 0.999338 
89 -46.1212 -36.6135 -0.0943018 -10905.3 4413.45 0.0256231 0.995016 0.995346 
90 -43.6131 -35.2619 -0.0539312 862.128 -9823.91 -0.0687517 -0.994651 0.997024 
91 -43.6672 -36.675 0.0183346 -11274.8 1685.78 0.0152785 0.996844 0.996961 
92 -41.1536 -35.2577 0.0575943 -1408.81 -3803.1 -0.0341041 -0.996602 0.997186 
93 -41.1212 -36.7328 0.18893 2976.53 -6783.2 0.0499612 0.989751 0.991012 
94 -38.638 -35.2543 0.340682 -391.498 5351.08 0.0398559 -0.997053 0.997849 
95 -38.6488 -36.7142 0.365902 2508.44 -2279.29 0.0148603 0.999814 0.999925 
96 -36.1817 -35.2552 0.628452 -15842.3 -1023.4 -0.0188917 -0.998138 0.998317 
97 -36.1565 -36.6886 0.583058 4647 -2465.15 -0.0358241 0.998429 0.999072 
98 -49.8952 -33.0874 -0.35105 11555.7 17276.4 0.0239637 -0.999274 0.999561 
99 -49.8647 -34.5404 -0.403918 12304.7 -6616.67 -0.0285278 0.998465 0.998872 
100 -47.3788 -33.0436 -0.361784 -2636.8 7648.51 0.0242918 -0.998156 0.998452 
101 -47.3286 -34.5093 -0.382293 115.942 2984.2 -0.0575051 0.997777 0.999433 
102 -44.8959 -33.027 -0.151892 -17473.2 276.392 0.00947866 -0.998688 0.998733 
103 -44.861 -34.4664 -0.170775 9617.57 -12135.2 0.00537131 0.995919 0.995934 
104 -42.3947 -33.0629 0.0448642 28396.1 -9112.45 -0.0439425 -0.995348 0.996318 
105 -42.3734 -34.5241 0.0368386 -175.593 3662.95 -0.00998852 0.998944 0.998993 
106 -39.8889 -33.2096 0.149042 -2709.76 340.615 -0.048171 -0.992685 0.993853 
107 -39.9006 -34.5969 0.17644 -31635.9 -4821.22 0.00319125 0.994853 0.994858 
108 -37.3768 -33.1019 0.565627 -43730.3 -25733.8 0.0411675 -0.994743 0.995595 
109 -37.4065 -34.537 0.480293 -11025.6 7033.13 0.0235148 0.999269 0.999546 
110 -34.9416 -33.0898 0.755785 49.4999 -1444.49 0.0675563 -0.997559 0.999844 
111 -34.9204 -34.5762 0.67679 5904.47 -2850.72 0.00531924 0.99821 0.998224 
112 -48.61 -30.898 -0.359852 -22989.4 1383.42 0.0639481 -0.997566 0.999614 
113 -48.5848 -32.336 -0.291668 2743.26 26894.5 -0.00753301 0.999455 0.999484 
114 -46.1661 -30.9085 -0.204099 -10339.3 -17552.8 -0.0357397 -0.994824 0.995465 
115 -46.1216 -32.3226 -0.202118 -18395.9 7004.84 -0.0304714 0.998498 0.998963 
116 -43.6112 -30.9057 -0.0881025 -7424.02 -856.859 0.00121326 -0.996313 0.996314 
117 -43.645 -32.3324 -0.147802 -1662.55 -3021.77 0.045578 0.998698 0.999737 
118 -41.1466 -30.9681 0.365015 15448.6 -16803.5 0.0550987 -0.996753 0.998275 
119 -41.0967 -32.4035 0.177254 17248.1 -11760 0.0831169 0.987603 0.991094 
120 -38.7113 -31.0389 0.677169 12790.4 -5150.27 0.0478694 -0.985883 0.987044 
121 -38.6542 -32.4554 0.394783 3048.85 5470.95 -0.119716 0.992111 0.999308 
122 -36.2682 -30.9587 0.875876 12620.1 7862.34 0.0280664 -0.995673 0.996069 
123 -36.1955 -32.4088 0.758007 -31614.7 -26062.6 -0.0829455 0.995151 0.998602 
124 -49.9003 -28.7766 -0.395357 504.957 -4519.29 0.0337771 -0.997849 0.998421 
125 -49.8468 -30.2043 -0.492186 -8733.35 645.645 -0.0501551 0.997664 0.998924 
126 -47.3928 -28.7154 -0.295416 -22815.7 5100.04 0.0195122 -0.996947 0.997138 
127 -47.4109 -30.15 -0.14646 -661.155 -3114.32 0.00211323 0.997183 0.997185 
128 -44.9141 -28.7981 -0.0948326 15007 -8710.46 -0.0192764 -0.997371 0.997557 
129 -44.8813 -30.2397 -0.190798 -621.084 -436.556 -0.0197609 0.99389 0.994086 
130 -42.4199 -28.7887 0.237392 2419.52 4485.3 -0.00217081 -0.998578 0.99858 
131 -42.3979 -30.2304 0.240074 -1935.01 -14884.1 0.00956078 0.999156 0.999202 
132 -39.939 -28.7761 0.804982 -10883.9 23139.2 0.0276005 -0.999186 0.999567 
133 -39.9457 -30.2265 0.698912 4981.73 -2924.55 0.0332213 0.993541 0.994096 
134 -37.4682 -28.7687 1.03771 16775.6 913.585 -0.101803 -0.991198 0.996412 
135 -37.5124 -30.2363 0.847775 9838.68 7394.07 -0.0333915 0.992062 0.992624 
136 -34.9315 -28.8194 1.35419 -4133.14 1659.21 0.043031 -0.992614 0.993546 
137 -34.9833 -30.2497 1.07085 3240.75 33042.1 0.0399556 0.997107 0.997908 
138 -48.6211 -26.6332 -0.455784 -111.633 -11240.6 -0.000528546 -0.99936 0.99936 
139 -48.6455 -28.061 -0.400419 -22284.6 17116 -0.0197539 0.996857 0.997052 
140 -46.1232 -26.588 -0.145504 3425.76 3193.82 0.0102787 -0.994225 0.994278 
141 -46.1606 -28.0203 -0.209291 -2454.27 -12349.3 0.0703044 0.997067 0.999542 
142 -43.6821 -26.6496 0.320178 -4169.88 14851.5 -0.0762222 -0.993191 0.996112 
143 -43.6591 -28.0865 0.130902 1789.17 4294.5 -0.0162195 0.999429 0.99956 
144 -41.1578 -26.7037 0.82785 -8304.94 7965.97 0.100504 -0.988073 0.993171 
145 -41.1559 -28.1013 0.583357 -14072.8 35967.1 0.00686152 0.998575 0.998598 
146 -38.7894 -26.6398 1.28621 -3654.36 -1083.19 0.0329072 -0.995272 0.995816 
147 -38.716 -28.0454 1.06318 -4076.29 -1696.15 -0.0651711 0.995588 0.997719 
148 -36.2643 -26.6858 1.29743 30850.4 -34248.6 0.0645107 -0.993909 0.996001 
149 -36.1772 -28.1402 1.23387 -6944.85 5294.93 -0.0139105 0.986306 0.986404 
150 -49.9067 -25.9047 -0.645463 1556.64 -1457.5 0.0280331 0.99702 0.997414 
151 -47.423 -25.9279 -0.165498 -13618.1 -5800.09 -0.0306911 0.994113 0.994587 
152 -44.87 -25.8928 0.207637 -26107.4 18676.9 0.0334082 0.995601 0.996162 
153 -42.4137 -25.9977 0.645133 5276.88 4208.37 0.0487881 0.996023 0.997217 
154 -40.0124 -25.8993 1.19452 241.96 1283.09 -0.0507081 0.987234 0.988536 
155 -37.5499 -25.9212 1.32718 1279.81 -15229 0.025676 0.999428 0.999758 
156 -35.0298 -25.9432 1.37529 -7427.34 16618.4 -0.0190358 0.998931 0.999112 
157 -49.8446 -24.4701 -0.478182 3157.43 3755.99 -0.026445 -0.996737 0.997088 
158 -47.3784 -24.5019 -0.0134884 13214.6 3579.67 -0.0486988 -0.997601 0.998788 
159 -44.9078 -24.5051 0.35275 -17047.8 -3034.07 -0.00671355 -0.99802 0.998042 
160 -42.397 -24.5586 0.620992 8208.57 -19914.8 0.0481846 -0.992369 0.993538 
161 -39.989 -24.4435 1.06102 11168.8 4458.97 -0.0142758 -0.999276 0.999378 
162 -37.5293 -24.5073 1.31321 -1284.39 7896.37 -0.0348672 -0.995246 0.995856 
163 -35.0101 -24.4777 1.34838 14610.4 -2802.08 -0.044408 -0.998966 0.999952 
164 -48.5968 -22.2936 -0.284665 5366.57 -471.545 -0.0351926 -0.997938 0.998559 
165 -48.6285 -23.7394 -0.202801 27041.4 -12161.4 0.0285559 0.997955 0.998363 
166 -46.1685 -22.3167 0.302546 3778.22 -1141.5 -0.0664325 -0.992133 0.994355 
167 -46.1289 -23.7695 0.243293 4627.44 4710.38 -0.0152676 0.998304 0.998421 
168 -43.6482 -22.3708 0.443994 -28116.5 4025.12 -0.00251915 -0.999283 0.999286 
169 -43.6628 -23.8115 0.500402 5383.78 -14543.3 0.0350272 0.999356 0.999969 
170 -41.2265 -22.3214 0.668515 -40732.5 28299.5 0.0643935 -0.996629 0.998707 
171 -41.2093 -23.7574 0.698569 -3051.89 1549.64 -0.0927411 0.992297 0.996622 
172 -38.782 -22.2795 0.984999 31706.4 -14546.9 -0.00763837 -0.996357 0.996387 
173 -38.7329 -23.7343 1.25236 1483.13 -377.263 0.023056 0.994796 0.995063 
174 -36.2589 -22.2887 1.07757 -972.896 9680.23 -0.00790211 -0.999148 0.99918 
175 -36.2668 -23.7324 1.22757 30746 9812.69 -0.00968081 0.998668 0.998715 
176 -49.8176 -20.0463 -0.300921 -3046.8 21561.3 0.0426839 -0.992624 0.993542 
177 -49.8399 -21.5309 -0.357223 14293.7 -1587.4 0.025564 0.998197 0.998524 
178 -47.2972 -20.0762 -0.114924 9140.77 -14309.7 -0.0703016 -0.996233 0.99871 
179 -47.365 -21.5602 -0.0673556 30634 -1408.55 0.0722103 0.994186 0.996805 
180 -44.903 -20.2155 0.401007 2930.23 -978.948 0.00456726 -0.985722 0.985733 
181 -44.8634 -21.654 0.424214 -3238.6 6850.72 0.0354192 0.994404 0.995034 
182 -42.4328 -20.198 0.395644 18183.2 -5982.13 -0.0247307 -0.997774 0.998081 
183 -42.4287 -21.6389 0.483095 -29238.4 11687.2 -0.0270514 0.999478 0.999844 
184 -39.9779 -20.1305 0.680735 -3920.65 12952.7 -0.0648264 -0.994934 0.997043 
185 -40.024 -21.5525 0.774812 -9653.09 -9267.03 -0.00683006 0.995295 0.995319 
186 -37.4531 -20.1569 0.842135 -19638.9 5900.73 -0.020329 -0.998132 0.998339 
187 -37.4984 -21.5978 0.955246 -2540.43 11071.2 0.0516492 0.996293 0.99763 
188 -34.9725 -20.1231 1.1174 3581.45 -1168.86 -0.00830561 -0.998776 0.998811 
189 -34.9916 -21.5864 1.09919 3692.6 5896.1 0.0373938 0.999213 0.999913 
190 -48.5847 -17.9034 -0.227642 -26453.3 -11107.6 -0.00735641 -0.998923 0.99895 
191 -48.5626 -19.3379 -0.297968 2256.22 -5192.09 -0.00116734 0.999469 0.99947 
192 -46.1226 -17.9784 0.072325 -4808.23 -11987.3 -0.0209441 -0.996896 0.997116 
193 -46.0827 -19.4074 0.157145 -15947.5 -27901.7 0.0686891 0.989376 0.991757 
194 -43.6343 -18.0273 0.204096 2865.3 31578.3 -0.00984859 -0.99522 0.995268 
195 -43.6764 -19.4169 0.470149 595.279 293.085 0.0140683 0.992248 0.992348 
196 -41.1974 -18.005 0.154439 -128.523 633.417 -0.056342 -0.995758 0.997351 
197 -41.1796 -19.4584 0.365687 616.515 10473.8 -0.0354378 0.999359 0.999987 
198 -38.7093 -18.0186 0.561928 -2352.79 -4429.72 0.0445903 -0.998239 0.999234 
199 -38.6639 -19.4509 0.669357 -3660.69 21227.2 0.0188356 0.995258 0.995436 
200 -36.208 -18.015 0.586685 -16867.9 -27365.5 -0.0431675 -0.99864 0.999572 
201 -36.2344 -19.4281 0.865388 -7807.19 -16967.7 -0.0168713 0.998511 0.998653 
202 -49.8467 -15.7592 -0.232428 -7281.19 26712 -0.000535326 -0.999372 0.999372 
203 -49.8233 -17.1868 -0.215731 1120.71 15224.8 -0.0739727 0.994418 0.997165 
204 -47.3623 -15.7817 -0.215706 -5704.86 3421.05 -0.0276887 -0.998219 0.998603 
205 -47.3423 -17.2219 -0.0776588 -5808.66 -17630.7 0.0395137 0.997502 0.998284 
206 -44.8631 -15.7866 -0.0449455 13735.8 819.397 -0.00216813 -0.999994 0.999996 
207 -44.8645 -17.2808 0.0694177 19299.8 -7476.16 0.0400608 0.998836 0.999639 
208 -42.3706 -15.8353 0.0325293 -34238.8 -29693.4 -0.0395549 -0.998697 0.99948 
209 -42.3921 -17.2382 0.0669478 -7259.59 10499.9 0.0199683 0.993644 0.993845 
210 -39.9704 -15.9068 0.102443 -28579.4 -4009.07 -0.0337271 -0.993161 0.993733 
211 -39.9336 -17.3114 0.275255 -16372.4 -15344.8 -0.00439237 0.998267 0.998277 
212 -37.5005 -15.8421 0.295294 -3281.54 26576.9 0.0151289 -0.995928 0.996043 
213 -37.4731 -17.283 0.577528 3596.31 -3012.46 -0.0312368 0.999198 0.999686 
214 -34.953 -15.9095 0.252523 7510.9 1384.89 -0.0274652 -0.998707 0.999085 
215 -34.987 -17.348 0.470926 -3642.76 -8212.57 0.0388096 0.99822 0.998974 
216 -48.5791 -13.638 -0.413699 -2897.96 -2216.57 0.0112577 -0.998661 0.998724 
217 -48.5678 -15.0385 -0.290631 -20024.3 17489.1 0.0312313 0.998487 0.998976 
218 -46.0938 -13.5967 -0.220921 5951.65 -2449.9 -0.00727228 -0.999846 0.999873 
219 -46.0992 -15.0737 -0.186948 5704.31 1563.84 0.0159104 0.999737 0.999864 
220 -43.6011 -13.6384 0.015872 -1954.96 -5627.33 -0.0370965 -0.999227 0.999915 
221 -43.6197 -15.0716 0.0721604 862.058 -4822.25 0.0398199 0.998793 0.999586 
222 -41.1553 -13.6975 -0.155991 -6211.78 -2305.28 -0.0431505 -0.997764 0.998696 
223 -41.1459 -15.1267 -0.0817509 -9088.97 -3394.01 0.054399 0.99413 0.995617 
224 -38.7216 -13.7787 -0.127835 -5818.76 15053 -0.0677757 -0.99396 0.996268 
225 -38.7274 -15.1857 0.162911 -19094 10548.8 -0.0301664 0.998403 0.998859 
226 -36.2166 -13.7832 -0.017278 -8489.07 8370.54 0.00198751 -0.999448 0.99945 
227 -36.2117 -15.159 0.12099 -3807.08 -3005.64 0.0465998 0.997719 0.998807 
228 -49.9169 -11.4773 -0.56082 -15906.9 -17738.4 0.0490285 -0.990879 0.992091 
229 -49.8251 -12.8872 -0.39876 -29832.3 -41202.9 -0.0445988 0.993159 0.99416 
230 -47.3729 -11.4352 -0.329219 2254.8 6444.16 0.0734941 -0.992496 0.995213 
231 -47.339 -12.8854 -0.338833 1167.63 4641.17 -0.0498105 0.998433 0.999675 
232 -44.8644 -11.4788 -0.176628 -7468.99 -7163.06 -0.046198 -0.997112 0.998182 
233 -44.8465 -12.8902 -0.131044 -10198.3 -14131.2 0.0129274 0.999209 0.999292 
234 -42.4078 -11.5491 -0.245238 -23623.9 8909.85 0.0223 -0.995484 0.995733 
235 -42.3696 -12.9385 -0.100929 -37889.5 -10903.6 0.0143637 0.996957 0.997061 
236 -39.8754 -11.5062 -0.293426 63356.9 -15707.3 -0.00361047 -0.99909 0.999096 
237 -39.898 -12.9961 -0.155298 3854.73 13404.7 0.0929335 0.993315 0.997653 
238 -37.4069 -11.58 -0.346508 14539.6 1913.36 -0.0522514 -0.992961 0.994335 
239 -37.4517 -13.0466 -0.206902 10138.1 3808.56 0.0452621 0.9983 0.999326 
240 -34.9329 -11.5919 -0.104818 2090.28 -7315.68 -0.0284908 -0.997249 0.997656 
241 -34.9415 -13.0256 0.0502065 12459.9 10143 -0.0234796 0.999279 0.999555 
242 -48.6117 -9.35333 -0.628745 29142.9 -3836.54 -0.0155727 -0.997679 0.9978 
243 -48.6474 -10.8063 -0.500842 -2937.32 3074.97 -0.0029767 0.990636 0.990641 
244 -46.1044 -9.28442 -0.389752 -8490.46 -9891.79 -0.00553912 -0.997547 0.997563 
245 -46.0983 -10.724 -0.288437 7520.63 -1762.87 0.0357669 0.998683 0.999323 
246 -43.6319 -9.34796 -0.274176 26079.1 -7239.54 0.0556034 -0.996713 0.998263 
247 -43.5981 -10.8033 -0.272154 -18472.6 7228.41 0.0462938 0.99556 0.996636 
248 -41.1631 -9.31376 -0.257565 35613 16092.1 -0.0465929 -0.998775 0.999862 
249 -41.1764 -10.7864 -0.211396 22803.5 -8947.71 -0.0401456 0.997945 0.998752 
250 -38.6639 -9.35538 -0.493461 -2114.11 5544.42 -0.0177682 -0.996355 0.996514 
251 -38.6189 -10.7919 -0.499293 1013.47 -959.142 0.028183 0.994271 0.994671 
252 -36.1591 -9.36283 -0.405751 -3475.02 2667.91 -0.0375401 -0.999139 0.999844 
253 -36.1683 -10.8127 -0.321057 8377.71 -2317.66 0.0143436 0.996207 0.996311 
254 -49.832 -7.13608 -0.982287 -13024 21004.2 -0.0386393 -0.994542 0.995292 
255 -49.8752 -8.59526 -0.84613 20701.9 -8707.54 0.0153671 0.996812 0.996931 
256 -47.3054 -7.17152 -0.956846 -5821.75 -5514.9 -0.0299467 -0.996767 0.997217 
257 -47.3692 -8.59266 -0.525158 4929.03 3228.66 -0.00408911 0.995192 0.9952 
258 -44.8895 -7.17672 -0.678232 8944.72 8265.7 0.0227719 -0.999575 0.999834 
259 -44.8663 -8.62294 -0.532517 -5997.61 -20256.6 0.0243307 0.997906 0.998202 
260 -42.4282 -7.15477 -0.256493 -409.333 1815.18 -0.0173051 -0.998613 0.998763 
261 -42.4042 -8.57207 -0.139465 -211.443 111.943 -0.0417707 0.99683 0.997705 
262 -39.8758 -7.1549 -0.482145 7160.85 -7841.53 -0.0283048 -0.994663 0.995066 
263 -39.8656 -8.60313 -0.396246 11020 19786.1 0.0511351 0.997253 0.998563 
264 -37.3123 -7.21901 -0.55135 -2217.02 -3546.05 -0.0633248 -0.99524 0.997253 
265 -37.383 -8.63851 -0.478393 -10580.2 20107.6 0.0737541 0.995846 0.998573 
266 -34.8528 -7.2514 -0.338433 -17607.4 22599.5 -0.0328142 -0.995182 0.995723 
267 -34.9167 -8.67895 -0.192646 -17576.1 11455.6 0.0478562 0.995938 0.997087 
268 -48.6065 -5.02289 -1.12749 39207.5 -5222.69 -0.0086729 -0.996525 0.996563 
269 -48.5565 -6.46855 -1.02807 -3296.18 -8546.77 -0.00487731 0.995433 0.995445 
270 -46.0962 -5.05354 -1.08459 1782.23 4168.33 -0.00866371 -0.996922 0.99696 
271 -46.109 -6.47584 -0.952623 -16095.4 -8216.25 0.0039423 0.999857 0.999865 
272 -43.6717 -4.98587 -0.747208 -5215.76 44971.7 -0.0225392 -0.995919 0.996174 
273 -43.6298 -6.44146 -0.566019 17567.2 6449.38 -0.0213897 0.998504 0.998733 
274 -41.1222 -5.01503 -0.545935 -3226.95 1903.26 -0.0401331 -0.998859 0.999665 
275 -41.1491 -6.4536 -0.49348 19977.3 10185.9 0.0206734 0.998129 0.998343 
276 -38.6294 -5.04509 -0.598211 6258.24 4769.05 0.0175083 -0.998425 0.998579 
277 -38.5843 -6.50235 -0.478328 8135.45 -7056.85 0.0140446 0.993743 0.993842 
278 -36.0953 -5.05393 -0.638002 7656.29 -24311.9 0.0382311 -0.998547 0.999278 
279 -36.0505 -6.53078 -0.56443 -1679.16 2479.59 0.0120104 0.997253 0.997325 
280 -49.8112 -2.81712 -1.23487 2095.8 6294.18 -0.070926 -0.994426 0.996952 
281 -49.8547 -4.2492 -1.11641 1680.7 -4871.25 0.0225312 0.994862 0.995117 
282 -47.3142 -2.88476 -1.40124 -4922.15 4530.49 0.0204198 -0.995685 0.995894 
283 -47.3155 -4.29789 -1.24316 3738.16 7234.75 0.0440193 0.998325 0.999295 
284 -44.8473 -2.87247 -1.02331 -548.659 -15810.2 -0.0335861 -0.998617 0.999182 
285 -44.8592 -4.28632 -0.85974 -10355.7 13896 -0.0143033 0.998282 0.998385 
286 -42.3158 -2.85797 -0.885192 18676 -1031.09 -0.0298867 -0.996449 0.996897 
287 -42.3573 -4.29996 -0.738029 12571 12341.5 0.0724276 0.996037 0.998667 
288 -39.8201 -2.87604 -0.696517 -10367.9 1920.93 -0.0507056 -0.9983 0.999587 
289 -39.8639 -4.32213 -0.617241 -3891.42 4077.48 0.0566461 0.997953 0.99956 
290 -37.3281 -2.89089 -0.789056 9839.99 9753.81 -0.0194629 -0.998641 0.998831 
291 -37.3607 -4.3248 -0.688392 7907.26 394.456 0.029104 0.999145 0.999569 
292 -34.8359 -2.9214 -0.810072 -6630.63 4620.58 -0.0678268 -0.996356 0.998662 
293 -34.8771 -4.33906 -0.703641 -9253.66 -5206.68 0.00484197 0.998213 0.998225 
294 -48.5096 -2.15302 -1.33263 -25036.2 30600.2 0.0742092 0.994982 0.997746 
295 -46.0959 -2.10261 -1.26167 8233.74 -12459.4 -0.00222764 0.995041 0.995044 
296 -43.6145 -2.15453 -1.0132 6178.29 -20454.1 0.00202932 0.997239 0.997241 
297 -41.0251 -2.16084 -0.860916 1951.27 25945.4 0.0455901 0.998534 0.999574 
298 -38.5977 -2.18388 -0.822942 1520.68 -4106.51 0.0395191 0.996261 0.997045 
299 -36.0339 -2.16464 -0.791519 17317.2 27346.9 0.0617515 0.997259 0.999169 
300 -48.5139 -0.737311 -1.52939 -17284.8 -4514.54 -0.0115768 -0.999609 0.999676 
301 -46.0734 -0.689124 -1.31367 -38935.8 25446.3 -0.0164785 -0.997514 0.99765 
302 -43.5674 -0.72659 -1.20705 -2041.59 1096.47 -0.0792863 -0.995565 0.998717 
303 -41.0175 -0.699592 -0.929797 -30580.8 -24862 0.0816911 -0.991786 0.995145 
304 -38.5287 -0.709222 -0.864933 20518.7 -13762.4 -0.0206405 -0.996214 0.996428 
305 -36.0194 -0.688245 -0.809249 19744 -14579.2 0.0281188 -0.998697 0.999093 
306 -49.7781 1.41339 -1.63038 16231.6 -199.774 -0.0214419 -0.994396 0.994628 
307 -49.7338 -0.0070302 -1.6011 -6447.77 -841.734 0.0428305 0.993056 0.993979 
308 -47.2285 1.3966 -1.6197 1098.69 -1282.42 -0.0448359 -0.995053 0.996063 
309 -47.2899 -0.0286541 -1.53278 -23365.9 7768.39 0.015592 0.996184 0.996306 
310 -44.7459 1.41644 -1.21068 -4798.36 -7323.77 -0.043203 -0.997002 0.997938 
311 -44.8095 -0.0039153 -1.32573 -5523.59 1778.53 0.0747164 0.995909 0.998707 
312 -42.2784 1.38543 -0.914717 5329.74 4084.77 0.0322693 -0.991801 0.992326 
313 -42.3121 -0.0723397 -0.949314 895.668 7626.77 -0.00573167 0.988578 0.988594 
314 -39.8591 1.41965 -1.02866 -5180.51 19640.1 -0.0616543 -0.991006 0.992922 
315 -39.8238 0.0137254 -0.869465 -10765.8 -21267.1 -0.054584 0.998402 0.999893 
316 -37.2648 1.44883 -1.0614 -77.4902 -4866.01 0.0342472 -0.99559 0.996178 
317 -37.3074 0.0146593 -0.81554 1683.82 -3387.92 -0.00586396 0.997613 0.997631 
318 -34.7972 1.48564 -0.787011 13642.6 -19234.9 -0.0152647 -0.998186 0.998303 
319 -34.7937 0.0422826 -0.748721 -12782.8 -15821.3 0.0271967 0.996849 0.99722 
320 -48.5062 3.58405 -1.65703 15491.3 -5817.97 -0.0209526 -0.996852 0.997072 
321 -48.4769 2.16437 -1.71666 5664.55 1377.86 0.00726609 0.998205 0.998232 
322 -45.9761 3.60298 -1.41769 5543.89 -3635.11 -0.0204594 -0.99916 0.999369 
323 -46.0083 2.14388 -1.45415 11432.9 -2915.06 -0.00465246 0.998261 0.998272 
324 -43.5143 3.57689 -1.1566 -22901.7 -11409.4 0.0343523 -0.994195 0.994788 
325 -43.5207 2.12475 -1.14279 -556.501 -21396.1 0.0170298 0.999709 0.999854 
326 -41.0678 3.68565 -1.11036 3938.61 522.636 0.048851 -0.995608 0.996806 
327 -41.04 2.21945 -1.07785 19987.8 25076.7 -0.016386 0.984636 0.984773 
328 -38.5615 3.62669 -1.15359 111.243 -10586.4 -0.0181571 -0.999339 0.999504 
329 -38.5567 2.14487 -1.12854 15633.6 2491.62 -0.0170538 0.998327 0.998473 
330 -36.1424 3.61207 -0.999648 -3741.83 12223.6 -0.00908157 -0.99219 0.992231 
331 -36.0684 2.19596 -0.953904 -13145.8 -22016.7 -0.100554 0.99383 0.998904 
332 -49.7201 5.80664 -1.79632 3579.66 -3784.33 0.0259188 -0.998376 0.998712 
333 -49.742 4.3666 -1.75874 4447.96 -1700.17 0.0525351 0.997128 0.998511 
334 -47.2515 5.77169 -1.60773 23419.3 -3488.69 -0.0349069 -0.997493 0.998103 
335 -47.2334 4.31758 -1.54447 17613.6 3336.84 -0.0184453 0.999698 0.999868 
336 -44.7815 5.74416 -1.24663 6218.86 9366.26 -0.00305955 -0.995035 0.99504 
337 -44.7321 4.31259 -1.28411 -12796.5 -1102.51 -0.00941829 0.997585 0.99763 
338 -42.2587 5.78459 -1.03328 -1851.66 22523.4 -0.023188 -0.993148 0.993419 
339 -42.3476 4.34545 -1.05941 -25625.5 -1430.73 -0.0446744 0.985737 0.986749 
340 -39.8284 5.78659 -0.918188 -19117.2 -2227.88 -0.0148471 -0.997431 0.997542 
341 -39.8102 4.38259 -1.04823 -10136.2 -22723 0.0253 0.998642 0.998963 
342 -37.3437 5.78536 -0.990261 18916.2 -2686.25 -0.0408091 -0.99655 0.997385 
343 -37.3453 4.32775 -1.12646 -6657.6 -1398.96 0.0148864 0.99974 0.999851 
344 -34.8023 5.71344 -0.826728 -4619.26 -2247.33 -0.00423918 -0.998758 0.998767 
345 -34.8281 4.28867 -0.728438 212.826 12986 0.0185872 0.992631 0.992805 
346 -48.5387 7.99242 -1.64491 -9131.22 -1308.26 -0.00440986 -0.994722 0.994731 
347 -48.4879 6.5492 -1.74558 2963.27 -6583.33 -0.016204 0.995482 0.995614 
348 -46.0404 7.91861 -1.54187 -4139.56 -1264.99 -0.0046846 -0.992129 0.99214 
349 -45.9624 6.49942 -1.53221 -1198.23 2115.76 0.000326654 0.992263 0.992263 
350 -43.5274 7.8932 -1.14937 -36321.3 9185.48 0.0569003 -0.997826 0.999447 
351 -43.5169 6.48749 -1.00817 -591.625 3490.55 -0.0293963 0.999526 0.999958 
352 -41.0331 7.97025 -0.901307 -18333.6 -24472.4 0.0435732 -0.998042 0.998993 
353 -41.023 6.53818 -1.01238 -11379.1 12625.5 0.00684887 0.996897 0.99692 
354 -38.5575 7.93721 -0.863573 4988.9 737.018 -0.0742022 -0.996529 0.999287 
355 -38.6124 6.50515 -0.950657 -10227.1 -14398.8 0.0205954 0.997559 0.997772 
356 -36.0026 7.91074 -0.824123 16815 -3476.95 0.0201888 -0.995097 0.995301 
357 -36.0561 6.44949 -0.927838 9315.31 1230.74 0.0910045 0.994552 0.998707 
358 -49.7422 10.1541 -1.67982 -2066.4 11627.7 -0.0246452 -0.997698 0.998002 
359 -49.7745 8.69352 -1.68493 -11039.8 2568.75 0.00923451 0.999137 0.99918 
360 -47.2277 10.0937 -1.50519 1818.08 -3122.39 -0.019266 -0.997087 0.997273 
361 -47.2655 8.64942 -1.57177 -5119.52 -970.987 0.0874497 0.99533 0.999164 
362 -44.8092 10.0401 -1.25188 5897.75 -3109.67 -0.0177758 -0.992039 0.992198 
363 -44.7628 8.58111 -1.30494 4150.83 1173.81 -0.00219277 0.995064 0.995066 
364 -42.3468 10.0667 -0.866148 -3313.46 30723.6 0.100697 -0.990299 0.995406 
365 -42.3135 8.65017 -1.0211 -3463.49 324.163 -0.0927433 0.995562 0.999873 
366 -39.8688 10.0778 -0.531662 7648.06 -14558.6 -0.0151988 -0.994586 0.994702 
367 -39.8138 8.67606 -0.784392 -19681.2 -35226.1 -0.0322317 0.997601 0.998122 
368 -37.3428 10.0676 -0.384599 4637.7 -5845.38 0.0762565 -0.996577 0.999491 
369 -37.2857 8.62478 -0.612922 25165.9 -6685.43 -0.0272726 0.996111 0.996484 
370 -34.8223 10.1399 -0.605861 8154.97 -1297.8 0.0491967 -0.993863 0.99508 
371 -34.7744 8.6887 -0.753672 -4417.86 9190.75 -0.0103524 0.989743 0.989798 
372 -48.5357 12.2626 -1.38932 -18784.3 2617.87 0.00776407 -0.992966 0.992997 
373 -48.4713 10.8476 -1.52911 1786.79 -6366.87 7.50985e-05 0.99534 0.99534 
374 -46.0614 12.2625 -1.07476 4181.96 81.0437 0.0165108 -0.997867 0.998003 
375 -46.0126 10.8418 -1.31427 -777.809 -5411.36 0.00112333 0.990884 0.990884 
376 -43.5741 12.2557 -0.962869 7534.02 16703.5 -0.0285632 -0.999285 0.999693 
377 -43.5765 10.7753 -1.00545 10503.1 12701.8 -0.0133606 0.999693 0.999782 
378 -41.0634 12.2856 -0.608453 -45769.3 18611 -0.0364204 -0.993813 0.99448 
379 -41.1432 10.8913 -0.619174 7810.39 -2197.54 0.0249206 0.983262 0.983578 
380 -38.6116 12.235 -0.11749 5034.61 2704.53 -0.0187745 -0.999395 0.999572 
381 -38.6206 10.782 -0.348722 16349.6 -8214.33 0.00232677 0.999507 0.999509 
382 -36.0482 12.2381 -0.0852354 4998.82 -4536.17 -0.0594297 -0.996117 0.997888 
383 -36.1202 10.8114 -0.374977 21051 -15933.4 -0.0187114 0.992216 0.992393 